92727
     RDKit          3D

 94 97  0  0  1  0  0  0  0  0999 V2000
   -0.9618    1.1871    1.1644 O   0  0  0  0  0  0  0  0  0  0  0  0
   -3.0511   -2.6029    1.0172 O   0  0  0  0  0  0  0  0  0  0  0  0
   -4.9808    1.9899    2.3363 O   0  0  0  0  0  0  0  0  0  0  0  0
    3.3576    0.2496    2.2361 O   0  0  0  0  0  0  0  0  0  0  0  0
    5.8734    0.2471    0.8321 O   0  0  0  0  0  0  0  0  0  0  0  0
   -5.2888    0.1794    0.8633 N   0  0  0  0  0  0  0  0  0  0  0  0
   -2.6500   -0.6222   -0.1520 N   0  0  0  0  0  0  0  0  0  0  0  0
    2.5216    0.5985    0.0727 N   0  0  0  0  0  0  0  0  0  0  0  0
   -5.8413    2.5273    0.2394 N   0  0  0  0  0  0  0  0  0  0  0  0
   -1.4280   -1.1054   -0.8056 C   0  0  2  0  0  0  0  0  0  0  0  0
   -4.4464   -0.7471    1.6600 C   0  0  1  0  0  0  0  0  0  0  0  0
   -0.3721    0.0210   -0.8612 C   0  0  0  0  0  0  0  0  0  0  0  0
    0.0845    0.4856    0.5410 C   0  0  1  0  0  0  0  0  0  0  0  0
   -5.2896   -1.7479    2.5088 C   0  0  0  0  0  0  0  0  0  0  0  0
    1.3546    1.3764    0.5108 C   0  0  2  0  0  0  0  0  0  0  0  0
   -1.7515   -1.5990   -2.2296 C   0  0  0  0  0  0  0  0  0  0  0  0
   -3.3790   -1.4031    0.8089 C   0  0  0  0  0  0  0  0  0  0  0  0
   -6.0399   -0.2701   -0.3206 C   0  0  0  0  0  0  0  0  0  0  0  0
   -5.8914    0.7347   -1.4661 C   0  0  0  0  0  0  0  0  0  0  0  0
    1.1929    2.6356   -0.3665 C   0  0  0  0  0  0  0  0  0  0  0  0
   -5.3591    1.5812    1.2042 C   0  0  0  0  0  0  0  0  0  0  0  0
   -6.1241   -2.7469    1.6886 C   0  0  0  0  0  0  0  0  0  0  0  0
   -6.1918   -1.0039    3.5029 C   0  0  0  0  0  0  0  0  0  0  0  0
   -6.4164    2.1097   -1.0382 C   0  0  0  0  0  0  0  0  0  0  0  0
   -2.7390   -2.7383   -2.2163 C   0  0  0  0  0  0  0  0  0  0  0  0
    2.3970    3.5365   -0.2486 C   0  0  0  0  0  0  0  0  0  0  0  0
    3.5084    0.1016    0.9901 C   0  0  0  0  0  0  0  0  0  0  0  0
   -2.3393   -4.0209   -1.8036 C   0  0  0  0  0  0  0  0  0  0  0  0
   -4.0808   -2.5172   -2.5657 C   0  0  0  0  0  0  0  0  0  0  0  0
    3.3709    3.5583   -1.2606 C   0  0  0  0  0  0  0  0  0  0  0  0
    2.5810    4.3277    0.8988 C   0  0  0  0  0  0  0  0  0  0  0  0
    4.7512   -0.5555    0.4837 C   0  0  0  0  0  0  0  0  0  0  0  0
   -3.2735   -5.0590   -1.7266 C   0  0  0  0  0  0  0  0  0  0  0  0
   -5.0130   -3.5559   -2.4845 C   0  0  0  0  0  0  0  0  0  0  0  0
   -4.6104   -4.8255   -2.0636 C   0  0  0  0  0  0  0  0  0  0  0  0
    4.4989    4.3742   -1.1348 C   0  0  0  0  0  0  0  0  0  0  0  0
    3.7172    5.1324    1.0250 C   0  0  0  0  0  0  0  0  0  0  0  0
    4.6741    5.1578    0.0061 C   0  0  0  0  0  0  0  0  0  0  0  0
    7.1653   -0.0446    0.3853 C   0  0  0  0  0  0  0  0  0  0  0  0
    7.7272    0.7400   -0.6399 C   0  0  0  0  0  0  0  0  0  0  0  0
    7.9191   -1.0884    0.9676 C   0  0  0  0  0  0  0  0  0  0  0  0
    9.0217    0.4604   -1.0998 C   0  0  0  0  0  0  0  0  0  0  0  0
    9.2049   -1.3656    0.4758 C   0  0  0  0  0  0  0  0  0  0  0  0
    6.9490    1.8834   -1.2234 C   0  0  0  0  0  0  0  0  0  0  0  0
    7.3690   -1.9240    2.0896 C   0  0  0  0  0  0  0  0  0  0  0  0
    9.7508   -0.5950   -0.5515 C   0  0  0  0  0  0  0  0  0  0  0  0
   -0.8161    1.1182    2.1422 H   0  0  0  0  0  0  0  0  0  0  0  0
   -2.9900    0.3358   -0.3871 H   0  0  0  0  0  0  0  0  0  0  0  0
    2.6418    0.4014   -0.9477 H   0  0  0  0  0  0  0  0  0  0  0  0
   -5.9324    3.5306    0.5216 H   0  0  0  0  0  0  0  0  0  0  0  0
   -0.9883   -1.9499   -0.2290 H   0  0  0  0  0  0  0  0  0  0  0  0
   -3.8547   -0.1572    2.3950 H   0  0  0  0  0  0  0  0  0  0  0  0
   -0.7875    0.8834   -1.4279 H   0  0  0  0  0  0  0  0  0  0  0  0
    0.5066   -0.3599   -1.4205 H   0  0  0  0  0  0  0  0  0  0  0  0
    0.3272   -0.4231    1.1409 H   0  0  0  0  0  0  0  0  0  0  0  0
   -4.5756   -2.3463    3.1174 H   0  0  0  0  0  0  0  0  0  0  0  0
    1.5187    1.7311    1.5533 H   0  0  0  0  0  0  0  0  0  0  0  0
   -2.1484   -0.7529   -2.8349 H   0  0  0  0  0  0  0  0  0  0  0  0
   -0.8175   -1.9447   -2.7264 H   0  0  0  0  0  0  0  0  0  0  0  0
   -5.6896   -1.2621   -0.6615 H   0  0  0  0  0  0  0  0  0  0  0  0
   -7.1171   -0.3529   -0.0602 H   0  0  0  0  0  0  0  0  0  0  0  0
   -4.8255    0.8188   -1.7686 H   0  0  0  0  0  0  0  0  0  0  0  0
   -6.4665    0.3814   -2.3484 H   0  0  0  0  0  0  0  0  0  0  0  0
    0.2867    3.1980   -0.0547 H   0  0  0  0  0  0  0  0  0  0  0  0
    1.0480    2.3474   -1.4297 H   0  0  0  0  0  0  0  0  0  0  0  0
   -5.5317   -3.1959    0.8664 H   0  0  0  0  0  0  0  0  0  0  0  0
   -6.4654   -3.5730    2.3486 H   0  0  0  0  0  0  0  0  0  0  0  0
   -7.0300   -2.2657    1.2657 H   0  0  0  0  0  0  0  0  0  0  0  0
   -5.5844   -0.3362    4.1523 H   0  0  0  0  0  0  0  0  0  0  0  0
   -6.9503   -0.3907    2.9676 H   0  0  0  0  0  0  0  0  0  0  0  0
   -6.7225   -1.7293    4.1589 H   0  0  0  0  0  0  0  0  0  0  0  0
   -6.1590    2.8583   -1.8173 H   0  0  0  0  0  0  0  0  0  0  0  0
   -7.5231    2.0725   -0.9404 H   0  0  0  0  0  0  0  0  0  0  0  0
   -1.3099   -4.2123   -1.5271 H   0  0  0  0  0  0  0  0  0  0  0  0
   -4.4091   -1.5381   -2.8847 H   0  0  0  0  0  0  0  0  0  0  0  0
    3.2570    2.9446   -2.1467 H   0  0  0  0  0  0  0  0  0  0  0  0
    1.8492    4.3118    1.6977 H   0  0  0  0  0  0  0  0  0  0  0  0
    4.8433   -1.5630    0.9371 H   0  0  0  0  0  0  0  0  0  0  0  0
    4.7026   -0.6718   -0.6194 H   0  0  0  0  0  0  0  0  0  0  0  0
   -2.9628   -6.0441   -1.4034 H   0  0  0  0  0  0  0  0  0  0  0  0
   -6.0480   -3.3750   -2.7448 H   0  0  0  0  0  0  0  0  0  0  0  0
   -5.3346   -5.6265   -1.9915 H   0  0  0  0  0  0  0  0  0  0  0  0
    5.2406    4.3909   -1.9215 H   0  0  0  0  0  0  0  0  0  0  0  0
    3.8578    5.7353    1.9119 H   0  0  0  0  0  0  0  0  0  0  0  0
    5.5535    5.7794    0.1051 H   0  0  0  0  0  0  0  0  0  0  0  0
    9.4662    1.0580   -1.8861 H   0  0  0  0  0  0  0  0  0  0  0  0
    9.7895   -2.1740    0.8966 H   0  0  0  0  0  0  0  0  0  0  0  0
    7.4828    2.3497   -2.0780 H   0  0  0  0  0  0  0  0  0  0  0  0
    5.9639    1.5213   -1.5850 H   0  0  0  0  0  0  0  0  0  0  0  0
    6.7909    2.6534   -0.4400 H   0  0  0  0  0  0  0  0  0  0  0  0
    6.8892   -2.8337    1.6747 H   0  0  0  0  0  0  0  0  0  0  0  0
    8.1816   -2.2349    2.7802 H   0  0  0  0  0  0  0  0  0  0  0  0
    6.6248   -1.3565    2.6850 H   0  0  0  0  0  0  0  0  0  0  0  0
   10.7467   -0.8084   -0.9185 H   0  0  0  0  0  0  0  0  0  0  0  0
 13  1  1  0
  2 17  2  0
  3 21  2  0
  4 27  2  0
  5 32  1  0
  5 39  1  0
  6 11  1  0
  6 18  1  0
  6 21  1  0
 10  7  1  0
  7 17  1  0
 15  8  1  0
  8 27  1  0
  9 21  1  0
  9 24  1  0
 10 12  1  0
 10 16  1  0
 11 14  1  0
 11 17  1  0
 12 13  1  0
 13 15  1  0
 14 22  1  0
 14 23  1  0
 15 20  1  0
 16 25  1  0
 18 19  1  0
 19 24  1  0
 20 26  1  0
 25 28  2  0
 25 29  1  0
 26 30  2  0
 26 31  1  0
 27 32  1  0
 28 33  1  0
 29 34  2  0
 30 36  1  0
 31 37  2  0
 33 35  2  0
 34 35  1  0
 36 38  2  0
 37 38  1  0
 39 40  2  0
 39 41  1  0
 40 42  1  0
 40 44  1  0
 41 43  2  0
 41 45  1  0
 42 46  2  0
 43 46  1  0
  1 47  1  0
  7 48  1  0
  8 49  1  0
  9 50  1  0
 10 51  1  1
 11 52  1  1
 12 53  1  0
 12 54  1  0
 13 55  1  1
 14 56  1  0
 15 57  1  1
 16 58  1  0
 16 59  1  0
 18 60  1  0
 18 61  1  0
 19 62  1  0
 19 63  1  0
 20 64  1  0
 20 65  1  0
 22 66  1  0
 22 67  1  0
 22 68  1  0
 23 69  1  0
 23 70  1  0
 23 71  1  0
 24 72  1  0
 24 73  1  0
 28 74  1  0
 29 75  1  0
 30 76  1  0
 31 77  1  0
 32 78  1  0
 32 79  1  0
 33 80  1  0
 34 81  1  0
 35 82  1  0
 36 83  1  0
 37 84  1  0
 38 85  1  0
 42 86  1  0
 43 87  1  0
 44 88  1  0
 44 89  1  0
 44 90  1  0
 45 91  1  0
 45 92  1  0
 45 93  1  0
 46 94  1  0
M  END
>  <PUBCHEM_COMPOUND_CID>  (1) 
92727

>  <PUBCHEM_COMPOUND_CANONICALIZED>  (1) 
1

>  <PUBCHEM_CACTVS_COMPLEXITY>  (1) 
940

>  <PUBCHEM_CACTVS_HBOND_ACCEPTOR>  (1) 
5

>  <PUBCHEM_CACTVS_HBOND_DONOR>  (1) 
4

>  <PUBCHEM_CACTVS_ROTATABLE_BOND>  (1) 
15

>  <PUBCHEM_CACTVS_SUBSKEYS>  (1) 
AAADcfB/uAAAAAAAAAAAAAAAAAAAAAAAAAA8YMEAAAAAAAABUAAAHgAQCAAADTzhmAYzBoPABgCIAiFSEAICCAAgIAAIiIHMCIiOdjKE8T+XeCCu1hOYqAeQwPAOAAACAAAIAAAAAAQAABAAAAAAAAAAAA==

>  <PUBCHEM_IUPAC_OPENEYE_NAME>  (1) 
(2S)-N-[(1S,3S,4S)-1-benzyl-4-[[2-(2,6-dimethylphenoxy)acetyl]amino]-3-hydroxy-5-phenyl-pentyl]-3-methyl-2-(2-oxohexahydropyrimidin-1-yl)butanamide

>  <PUBCHEM_IUPAC_CAS_NAME>  (1) 
(2S)-N-[(2S,4S,5S)-5-[[2-(2,6-dimethylphenoxy)-1-oxoethyl]amino]-4-hydroxy-1,6-diphenylhexan-2-yl]-3-methyl-2-(2-oxo-1,3-diazinan-1-yl)butanamide

>  <PUBCHEM_IUPAC_NAME_MARKUP>  (1) 
(2<I>S</I>)-<I>N</I>-[(2<I>S</I>,4<I>S</I>,5<I>S</I>)-5-[[2-(2,6-dimethylphenoxy)acetyl]amino]-4-hydroxy-1,6-diphenylhexan-2-yl]-3-methyl-2-(2-oxo-1,3-diazinan-1-yl)butanamide

>  <PUBCHEM_IUPAC_NAME>  (1) 
(2S)-N-[(2S,4S,5S)-5-[[2-(2,6-dimethylphenoxy)acetyl]amino]-4-hydroxy-1,6-diphenylhexan-2-yl]-3-methyl-2-(2-oxo-1,3-diazinan-1-yl)butanamide

>  <PUBCHEM_IUPAC_SYSTEMATIC_NAME>  (1) 
(2S)-N-[(2S,4S,5S)-5-[2-(2,6-dimethylphenoxy)ethanoylamino]-4-oxidanyl-1,6-diphenyl-hexan-2-yl]-3-methyl-2-(2-oxidanylidene-1,3-diazinan-1-yl)butanamide

>  <PUBCHEM_IUPAC_TRADITIONAL_NAME>  (1) 
(2S)-N-[(1S,3S,4S)-1-benzyl-4-[[2-(2,6-dimethylphenoxy)acetyl]amino]-3-hydroxy-5-phenyl-pentyl]-2-(2-ketohexahydropyrimidin-1-yl)-3-methyl-butyramide

>  <PUBCHEM_IUPAC_INCHI>  (1) 
InChI=1S/C37H48N4O5/c1-25(2)34(41-20-12-19-38-37(41)45)36(44)39-30(21-28-15-7-5-8-16-28)23-32(42)31(22-29-17-9-6-10-18-29)40-33(43)24-46-35-26(3)13-11-14-27(35)4/h5-11,13-18,25,30-32,34,42H,12,19-24H2,1-4H3,(H,38,45)(H,39,44)(H,40,43)/t30-,31-,32-,34-/m0/s1

>  <PUBCHEM_IUPAC_INCHIKEY>  (1) 
KJHKTHWMRKYKJE-SUGCFTRWSA-N

>  <PUBCHEM_XLOGP3_AA>  (1) 
5.9

>  <PUBCHEM_EXACT_MASS>  (1) 
628.36247064

>  <PUBCHEM_MOLECULAR_FORMULA>  (1) 
C37H48N4O5

>  <PUBCHEM_MOLECULAR_WEIGHT>  (1) 
628.8

>  <PUBCHEM_SMILES>  (1) 
CC1=C(C(=CC=C1)C)OCC(=O)N[C@@H](CC2=CC=CC=C2)[C@H](C[C@H](CC3=CC=CC=C3)NC(=O)[C@H](C(C)C)N4CCCNC4=O)O

>  <PUBCHEM_CONNECTIVITY_SMILES>  (1) 
CC1=C(C(=CC=C1)C)OCC(=O)NC(CC2=CC=CC=C2)C(CC(CC3=CC=CC=C3)NC(=O)C(C(C)C)N4CCCNC4=O)O

>  <PUBCHEM_CACTVS_TPSA>  (1) 
120

>  <PUBCHEM_MONOISOTOPIC_WEIGHT>  (1) 
628.36247064

>  <PUBCHEM_TOTAL_CHARGE>  (1) 
0

>  <PUBCHEM_HEAVY_ATOM_COUNT>  (1) 
46

>  <PUBCHEM_ATOM_DEF_STEREO_COUNT>  (1) 
4

>  <PUBCHEM_ATOM_UDEF_STEREO_COUNT>  (1) 
0

>  <PUBCHEM_BOND_DEF_STEREO_COUNT>  (1) 
0

>  <PUBCHEM_BOND_UDEF_STEREO_COUNT>  (1) 
0

>  <PUBCHEM_ISOTOPIC_ATOM_COUNT>  (1) 
0

>  <PUBCHEM_COMPONENT_COUNT>  (1) 
1

>  <PUBCHEM_CACTVS_TAUTO_COUNT>  (1) 
-1

>  <PUBCHEM_COORDINATE_TYPE>  (1) 
1
5
255

>  <PUBCHEM_BONDANNOTATIONS>  (1) 
13  1  6
11  17  5
25  28  8
25  29  8
26  30  8
26  31  8
28  33  8
29  34  8
30  36  8
31  37  8
33  35  8
34  35  8
36  38  8
37  38  8
39  40  8
39  41  8
40  42  8
41  43  8
42  46  8
43  46  8
10  7  6
15  8  5

$$$$
